LAMMPS (10 Dec 2025 - Development - patch_10Dec2025-121-gd51f1eef21)
OMP_NUM_THREADS environment is not set. Defaulting to 1 thread.
  using 1 OpenMP thread(s) per MPI task
# EAM Copper benchmark - larger scale
# 瓶颈: pair_eam (many-body势, 比 LJ 复杂)
# 特点: 需要计算嵌入能, 代码优化空间大

units           metal
atom_style      atomic

# 40x40x40 box = 256,000 atoms (比 melt_xxlarge 的 131k 大)
lattice         fcc 3.615
Lattice spacing in x,y,z = 3.615 3.615 3.615
region          box block 0 40 0 40 0 40
create_box      1 box
Created orthogonal box = (0 0 0) to (144.6 144.6 144.6)
  1 by 1 by 1 MPI processor grid
create_atoms    1 box
Created 256000 atoms
  using lattice units in orthogonal box = (0 0 0) to (144.6 144.6 144.6)
  create_atoms CPU = 0.007 seconds

pair_style      eam
pair_coeff      1 1 ../../third_party/lammps/bench/Cu_u3.eam
Reading eam potential file ../../third_party/lammps/bench/Cu_u3.eam with DATE: 2007-06-11

velocity        all create 1600.0 376847 loop geom

neighbor        1.0 bin
neigh_modify    every 1 delay 5 check yes

fix             1 all nve

timestep        0.005
thermo          100
thermo_style    custom step temp pe ke etotal press

# 1000 步, 预计运行 30-60 秒
run             1000
Neighbor list info ...
  update: every = 1 steps, delay = 5 steps, check = yes
  max neighbors/atom: 2000, page size: 100000
  master list distance cutoff = 5.95
  ghost atom cutoff = 5.95
  binsize = 2.975, bins = 49 49 49
  1 neighbor lists, perpetual/occasional/extra = 1 0 0
  (1) pair eam, perpetual
      attributes: half, newton on
      pair build: half/bin/atomonly/newton
      stencil: half/bin/3d
      bin: standard
Per MPI rank memory allocation (min/avg/max) = 102.8 | 102.8 | 102.8 Mbytes
   Step          Temp          PotEng         KinEng         TotEng         Press     
         0   1600          -906240         52944.749     -853295.25      18704.085    
       100   798.91514     -879560.79      26436.476     -853124.32      51436.878    
       200   797.93038     -879527.85      26403.889     -853123.96      51516.053    
       300   798.09569     -879533.19      26409.36      -853123.83      51506.872    
       400   797.85541     -879524.95      26401.409     -853123.54      51551.547    
       500   799.16387     -879568.53      26444.706     -853123.83      51492.825    
       600   797.12726     -879500.49      26377.314     -853123.18      51559.648    
       700   796.82673     -879490.53      26367.369     -853123.16      51588.526    
       800   798.5968      -879549.38      26425.942     -853123.43      51509.36     
       900   797.94413     -879527.12      26404.345     -853122.78      51541.342    
      1000   799.64706     -879583.94      26460.695     -853123.25      51478.782    
Loop time of 174.921 on 1 procs for 1000 steps with 256000 atoms

Performance: 2.470 ns/day, 9.718 hours/ns, 5.717 timesteps/s, 1.464 Matom-step/s
99.8% CPU use with 1 MPI tasks x 1 OpenMP threads

MPI task timing breakdown:
Section |  min time  |  avg time  |  max time  |%varavg| %total
---------------------------------------------------------------
Pair    | 143.98     | 143.98     | 143.98     |   0.0 | 82.31
Neigh   | 29.091     | 29.091     | 29.091     |   0.0 | 16.63
Comm    | 0.59269    | 0.59269    | 0.59269    |   0.0 |  0.34
Output  | 0.0028405  | 0.0028405  | 0.0028405  |   0.0 |  0.00
Modify  | 1.0604     | 1.0604     | 1.0604     |   0.0 |  0.61
Other   |            | 0.1942     |            |       |  0.11

Nlocal:         256000 ave      256000 max      256000 min
Histogram: 1 0 0 0 0 0 0 0 0 0
Nghost:          73248 ave       73248 max       73248 min
Histogram: 1 0 0 0 0 0 0 0 0 0
Neighs:    9.66539e+06 ave 9.66539e+06 max 9.66539e+06 min
Histogram: 1 0 0 0 0 0 0 0 0 0

Total # of neighbors = 9665390
Ave neighs/atom = 37.75543
Neighbor list builds = 151
Dangerous builds = 0
Total wall time: 0:02:55
