LAMMPS (10 Dec 2025 - Development - patch_10Dec2025-121-gd51f1eef21-modified)
# 3d Lennard-Jones melt (xxlarge system)

units           lj
atom_style      atomic

lattice         fcc 0.8442
Lattice spacing in x,y,z = 1.6795962 1.6795962 1.6795962
region          box block 0 32 0 32 0 32
create_box      1 box
Created orthogonal box = (0 0 0) to (53.747078 53.747078 53.747078)
  3 by 2 by 2 MPI processor grid
create_atoms    1 box
Created 131072 atoms
  using lattice units in orthogonal box = (0 0 0) to (53.747078 53.747078 53.747078)
  create_atoms CPU = 0.001 seconds
mass            1 1.0

velocity        all create 3.0 87287 loop geom

pair_style      lj/cut 2.5
pair_coeff      1 1 1.0 1.0 2.5

neighbor        0.3 bin
neigh_modify    every 20 delay 0 check no

fix             1 all nve

thermo          100
run             1200
Generated 0 of 0 mixed pair_coeff terms from geometric mixing rule
Neighbor list info ...
  update: every = 20 steps, delay = 0 steps, check = no
  max neighbors/atom: 2000, page size: 100000
  master list distance cutoff = 2.8
  ghost atom cutoff = 2.8
  binsize = 1.4, bins = 39 39 39
  1 neighbor lists, perpetual/occasional/extra = 1 0 0
  (1) pair lj/cut, perpetual
      attributes: half, newton on
      pair build: half/bin/atomonly/newton
      stencil: half/bin/3d
      bin: standard
Per MPI rank memory allocation (min/avg/max) = 6.297 | 6.308 | 6.329 Mbytes
   Step          Temp          E_pair         E_mol          TotEng         Press     
         0   3             -6.7733681      0             -2.2734024     -3.7027366    
       100   1.6519952     -4.7582688      0             -2.2802949      5.8008747    
       200   1.6446467     -4.7470177      0             -2.2800664      5.860365     
       300   1.6499046     -4.7555657      0             -2.2807276      5.8360899    
       400   1.6409164     -4.7426568      0             -2.2813009      5.8807556    
       500   1.6462003     -4.7512312      0             -2.2819496      5.8470268    
       600   1.6424481     -4.7461545      0             -2.2825011      5.878847     
       700   1.6437056     -4.7486022      0             -2.2830625      5.8610737    
       800   1.6419072     -4.746651       0             -2.283809       5.8650706    
       900   1.6437477     -4.7501904      0             -2.2845877      5.8637309    
      1000   1.6401102     -4.7453456      0             -2.2851992      5.874745     
      1100   1.6431623     -4.7505571      0             -2.2858325      5.852397     
      1200   1.6401926     -4.7466737      0             -2.2864036      5.8628798    
Loop time of 4.51089 on 12 procs for 1200 steps with 131072 atoms

Performance: 114921.996 tau/day, 266.023 timesteps/s, 34.868 Matom-step/s
99.0% CPU use with 12 MPI tasks x no OpenMP threads

MPI task timing breakdown:
Section |  min time  |  avg time  |  max time  |%varavg| %total
---------------------------------------------------------------
Pair    | 3.0996     | 3.131      | 3.1732     |   1.3 | 69.41
Neigh   | 0.55863    | 0.56539    | 0.57451    |   0.6 | 12.53
Comm    | 0.6744     | 0.72846    | 0.76784    |   3.0 | 16.15
Output  | 0.00047663 | 0.00052344 | 0.00056608 |   0.0 |  0.01
Modify  | 0.076176   | 0.078154   | 0.080754   |   0.5 |  1.73
Other   |            | 0.007383   |            |       |  0.16

Nlocal:        10922.7 ave       10950 max       10863 min
Histogram: 1 0 1 0 1 1 0 1 5 2
Nghost:        10010.8 ave       10031 max        9967 min
Histogram: 1 0 0 0 2 1 2 1 1 4
Neighs:         413952 ave      416206 max      410124 min
Histogram: 1 1 0 1 0 2 0 4 1 2

Total # of neighbors = 4967420
Ave neighs/atom = 37.898407
Neighbor list builds = 60
Dangerous builds not checked
Total wall time: 0:00:04
