LAMMPS (test log)
Per MPI rank memory allocation (min/avg/max) = 1 | 1 | 1 Mbytes
   Step          Temp          E_pair         E_mol          TotEng         Press     
         0   1.0000000     -2.0000000      0.0000000     -4.0000000      0.5000000
       100   1.2000000     -2.1000000      0.0000000     -4.1000000      0.5500000
Loop time of 1.2345 on 1 procs for 100 steps with 1000 atoms

MPI task timing breakdown:
Section | min time | avg time | max time | %varavg | %total
Pair    | 0.4000   | 0.4100   | 0.4200   | 0.0     | 33.2
Comm    | 0.2000   | 0.2100   | 0.2200   | 0.0     | 17.0
