LAMMPS (test log)
Per MPI rank memory allocation (min/avg/max) = 1 | 1 | 1 Mbytes
   Step          Temp          E_pair         E_mol          TotEng         Press     
         0   1.0000000     -2.0000000      0.0000000     -1.5000000      0.5000000
       100   1.1000000     -2.1000000      0.0000000     -1.5500000      0.5500000
Loop time of 1.0 on 1 procs for 100 steps with 1000 atoms
