LAMMPS (10 Dec 2025 - Development - patch_10Dec2025-121-gd51f1eef21-modified)
  using 10 OpenMP thread(s) per MPI task
package omp 10
using multi-threaded neighbor list subroutines
# 3d Lennard-Jones melt (xxlarge system)

units           lj
atom_style      atomic

lattice         fcc 0.8442
Lattice spacing in x,y,z = 1.6795962 1.6795962 1.6795962
region          box block 0 32 0 32 0 32
create_box      1 box
Created orthogonal box = (0 0 0) to (53.747078 53.747078 53.747078)
  1 by 1 by 1 MPI processor grid
create_atoms    1 box
Created 131072 atoms
  using lattice units in orthogonal box = (0 0 0) to (53.747078 53.747078 53.747078)
  create_atoms CPU = 0.004 seconds
mass            1 1.0

velocity        all create 3.0 87287 loop geom

pair_style      lj/cut 2.5
pair_coeff      1 1 1.0 1.0 2.5

neighbor        0.3 bin
neigh_modify    every 40 delay 0 check no

fix             1 all nve

thermo          100
run             1200
Generated 0 of 0 mixed pair_coeff terms from geometric mixing rule
Last active /omp style is pair_style lj/cut/omp
Neighbor list info ...
  update: every = 40 steps, delay = 0 steps, check = no
  max neighbors/atom: 2000, page size: 100000
  master list distance cutoff = 2.8
  ghost atom cutoff = 2.8
  binsize = 1.4, bins = 39 39 39
  1 neighbor lists, perpetual/occasional/extra = 1 0 0
  (1) pair lj/cut/omp, perpetual
      attributes: half, newton on, omp
      pair build: half/bin/atomonly/newton/omp
      stencil: half/bin/3d
      bin: standard
Per MPI rank memory allocation (min/avg/max) = 97.83 | 97.83 | 97.83 Mbytes
   Step          Temp          E_pair         E_mol          TotEng         Press     
         0   3             -6.7733681      0             -2.2734024     -3.7027366    
       100   1.6506487     -4.7584646      0             -2.2825106      5.7952704    
       200   1.63971       -4.7504366      0             -2.2908904      5.8404193    
       300   1.6390608     -4.7540693      0             -2.2954969      5.8345163    
       400   1.6302188     -4.7500809      0             -2.3047714      5.8399615    
       500   1.6331053     -4.7590442      0             -2.309405       5.8025058    
       600   1.6243193     -4.7550313      0             -2.3185709      5.8091368    
       700   1.6233105     -4.7580095      0             -2.3230624      5.7976885    
       800   1.6189055     -4.7605652      0             -2.3322254      5.7869611    
       900   1.6189572     -4.7650276      0             -2.3366103      5.7561253    
      1000   1.6162048     -4.7702335      0             -2.3459447      5.7392858    
      1100   1.6128133     -4.7695648      0             -2.3503633      5.7295417    
      1200   1.6059994     -4.7681996      0             -2.359219       5.748517     
Loop time of 5.10729 on 10 procs for 1200 steps with 131072 atoms

Performance: 101502.019 tau/day, 234.958 timesteps/s, 30.796 Matom-step/s
826.1% CPU use with 1 MPI tasks x 10 OpenMP threads

MPI task timing breakdown:
Section |  min time  |  avg time  |  max time  |%varavg| %total
---------------------------------------------------------------
Pair    | 4.074      | 4.074      | 4.074      |   0.0 | 79.77
Neigh   | 0.36551    | 0.36551    | 0.36551    |   0.0 |  7.16
Comm    | 0.35668    | 0.35668    | 0.35668    |   0.0 |  6.98
Output  | 0.0020872  | 0.0020872  | 0.0020872  |   0.0 |  0.04
Modify  | 0.30439    | 0.30439    | 0.30439    |   0.0 |  5.96
Other   |            | 0.004657   |            |       |  0.09

Nlocal:         131072 ave      131072 max      131072 min
Histogram: 1 0 0 0 0 0 0 0 0 0
Nghost:          45369 ave       45369 max       45369 min
Histogram: 1 0 0 0 0 0 0 0 0 0
Neighs:    4.96698e+06 ave 4.96698e+06 max 4.96698e+06 min
Histogram: 1 0 0 0 0 0 0 0 0 0

Total # of neighbors = 4966979
Ave neighs/atom = 37.895042
Neighbor list builds = 30
Dangerous builds not checked
Total wall time: 0:00:05
