LAMMPS (10 Dec 2025 - Development - patch_10Dec2025-121-gd51f1eef21-modified)
  using 12 OpenMP thread(s) per MPI task
package omp 12
using multi-threaded neighbor list subroutines
# 3d Lennard-Jones melt (xxlarge system)

units           lj
atom_style      atomic

lattice         fcc 0.8442
Lattice spacing in x,y,z = 1.6795962 1.6795962 1.6795962
region          box block 0 32 0 32 0 32
create_box      1 box
Created orthogonal box = (0 0 0) to (53.747078 53.747078 53.747078)
  1 by 1 by 1 MPI processor grid
create_atoms    1 box
Created 131072 atoms
  using lattice units in orthogonal box = (0 0 0) to (53.747078 53.747078 53.747078)
  create_atoms CPU = 0.008 seconds
mass            1 1.0

velocity        all create 3.0 87287 loop geom

pair_style      lj/cut 2.5
pair_coeff      1 1 1.0 1.0 2.5

neighbor        0.3 bin
neigh_modify    every 20 delay 0 check no

fix             1 all nve

thermo          100
run             1200
Generated 0 of 0 mixed pair_coeff terms from geometric mixing rule
Last active /omp style is pair_style lj/cut/omp
Neighbor list info ...
  update: every = 20 steps, delay = 0 steps, check = no
  max neighbors/atom: 2000, page size: 100000
  master list distance cutoff = 2.8
  ghost atom cutoff = 2.8
  binsize = 1.4, bins = 39 39 39
  1 neighbor lists, perpetual/occasional/extra = 1 0 0
  (1) pair lj/cut/omp, perpetual
      attributes: half, newton on, omp
      pair build: half/bin/atomonly/newton/omp
      stencil: half/bin/3d
      bin: standard
Per MPI rank memory allocation (min/avg/max) = 108.8 | 108.8 | 108.8 Mbytes
   Step          Temp          E_pair         E_mol          TotEng         Press     
         0   3             -6.7733681      0             -2.2734024     -3.7027366    
       100   1.6519952     -4.7582688      0             -2.2802949      5.8008747    
       200   1.6446467     -4.7470177      0             -2.2800664      5.860365     
       300   1.6499046     -4.7555657      0             -2.2807276      5.8360899    
       400   1.6409164     -4.7426568      0             -2.2813009      5.8807556    
       500   1.6462003     -4.7512312      0             -2.2819496      5.8470268    
       600   1.6424481     -4.7461545      0             -2.2825011      5.878847     
       700   1.6437057     -4.7486021      0             -2.2830623      5.8610739    
       800   1.6419059     -4.7466512      0             -2.2838111      5.865075     
       900   1.6437434     -4.7501906      0             -2.2845942      5.8637807    
      1000   1.639835      -4.7449107      0             -2.2851769      5.8760786    
      1100   1.6436052     -4.7511854      0             -2.2857965      5.8511627    
      1200   1.6403513     -4.7469957      0             -2.2864874      5.8623782    
Loop time of 5.24261 on 12 procs for 1200 steps with 131072 atoms

Performance: 98881.988 tau/day, 228.893 timesteps/s, 30.002 Matom-step/s
925.6% CPU use with 1 MPI tasks x 12 OpenMP threads

MPI task timing breakdown:
Section |  min time  |  avg time  |  max time  |%varavg| %total
---------------------------------------------------------------
Pair    | 3.8454     | 3.8454     | 3.8454     |   0.0 | 73.35
Neigh   | 0.64071    | 0.64071    | 0.64071    |   0.0 | 12.22
Comm    | 0.38283    | 0.38283    | 0.38283    |   0.0 |  7.30
Output  | 0.0020462  | 0.0020462  | 0.0020462  |   0.0 |  0.04
Modify  | 0.36195    | 0.36195    | 0.36195    |   0.0 |  6.90
Other   |            | 0.009688   |            |       |  0.18

Nlocal:         131072 ave      131072 max      131072 min
Histogram: 1 0 0 0 0 0 0 0 0 0
Nghost:          45344 ave       45344 max       45344 min
Histogram: 1 0 0 0 0 0 0 0 0 0
Neighs:    4.96753e+06 ave 4.96753e+06 max 4.96753e+06 min
Histogram: 1 0 0 0 0 0 0 0 0 0

Total # of neighbors = 4967527
Ave neighs/atom = 37.899223
Neighbor list builds = 60
Dangerous builds not checked
Total wall time: 0:00:05
