LAMMPS (10 Dec 2025 - Development - patch_10Dec2025-121-gd51f1eef21-modified)
  using 1 OpenMP thread(s) per MPI task
# 3d Lennard-Jones melt (xxlarge system)

units           lj
atom_style      atomic

lattice         fcc 0.8442
Lattice spacing in x,y,z = 1.6795962 1.6795962 1.6795962
region          box block 0 32 0 32 0 32
create_box      1 box
Created orthogonal box = (0 0 0) to (53.747078 53.747078 53.747078)
  1 by 1 by 1 MPI processor grid
create_atoms    1 box
Created 131072 atoms
  using lattice units in orthogonal box = (0 0 0) to (53.747078 53.747078 53.747078)
  create_atoms CPU = 0.004 seconds
mass            1 1.0

velocity        all create 3.0 87287 loop geom

pair_style      lj/cut 2.5
pair_coeff      1 1 1.0 1.0 2.5

neighbor        0.6 bin
neigh_modify    every 40 delay 0 check no

fix             1 all nve

thermo          100
run             1200
Generated 0 of 0 mixed pair_coeff terms from geometric mixing rule
Neighbor list info ...
  update: every = 40 steps, delay = 0 steps, check = no
  max neighbors/atom: 2000, page size: 100000
  master list distance cutoff = 3.1
  ghost atom cutoff = 3.1
  binsize = 1.55, bins = 35 35 35
  1 neighbor lists, perpetual/occasional/extra = 1 0 0
  (1) pair lj/cut/opt, perpetual
      attributes: half, newton on
      pair build: half/bin/atomonly/newton
      stencil: half/bin/3d
      bin: standard
Per MPI rank memory allocation (min/avg/max) = 47.47 | 47.47 | 47.47 Mbytes
   Step          Temp          E_pair         E_mol          TotEng         Press     
         0   3             -6.7733681      0             -2.2734024     -3.7027366    
       100   1.6520816     -4.7582348      0             -2.2801313      5.8010535    
       200   1.6447996     -4.7468283      0             -2.2796478      5.8611511    
       300   1.6477229     -4.751495       0             -2.2799295      5.853402     
       400   1.641974      -4.7429529      0             -2.2800107      5.8851157    
       500   1.641165      -4.7420967      0             -2.280368       5.8958413    
       600   1.6477079     -4.752296       0             -2.280753       5.8553094    
       700   1.6411718     -4.7428197      0             -2.2810807      5.8818267    
       800   1.645049      -4.7489953      0             -2.2814407      5.8628228    
       900   1.6439019     -4.7475085      0             -2.2816744      5.868157     
      1000   1.6431926     -4.7468861      0             -2.282116       5.8680556    
      1100   1.6402139     -4.742575       0             -2.2822728      5.8878755    
      1200   1.6417151     -4.7451561      0             -2.2826022      5.8760077    
Loop time of 57.3056 on 1 procs for 1200 steps with 131072 atoms

Performance: 9046.234 tau/day, 20.940 timesteps/s, 2.745 Matom-step/s
99.7% CPU use with 1 MPI tasks x 1 OpenMP threads

MPI task timing breakdown:
Section |  min time  |  avg time  |  max time  |%varavg| %total
---------------------------------------------------------------
Pair    | 52.421     | 52.421     | 52.421     |   0.0 | 91.48
Neigh   | 3.9426     | 3.9426     | 3.9426     |   0.0 |  6.88
Comm    | 0.25171    | 0.25171    | 0.25171    |   0.0 |  0.44
Output  | 0.0018193  | 0.0018193  | 0.0018193  |   0.0 |  0.00
Modify  | 0.65412    | 0.65412    | 0.65412    |   0.0 |  1.14
Other   |            | 0.03388    |            |       |  0.06

Nlocal:         131072 ave      131072 max      131072 min
Histogram: 1 0 0 0 0 0 0 0 0 0
Nghost:          50926 ave       50926 max       50926 min
Histogram: 1 0 0 0 0 0 0 0 0 0
Neighs:    6.87188e+06 ave 6.87188e+06 max 6.87188e+06 min
Histogram: 1 0 0 0 0 0 0 0 0 0

Total # of neighbors = 6871879
Ave neighs/atom = 52.428276
Neighbor list builds = 30
Dangerous builds not checked
Total wall time: 0:00:57
