LAMMPS (10 Dec 2025 - Development - patch_10Dec2025-121-gd51f1eef21-modified)
  using 1 OpenMP thread(s) per MPI task
# 3d Lennard-Jones melt (xxlarge system)

units           lj
atom_style      atomic

lattice         fcc 0.8442
Lattice spacing in x,y,z = 1.6795962 1.6795962 1.6795962
region          box block 0 32 0 32 0 32
create_box      1 box
Created orthogonal box = (0 0 0) to (53.747078 53.747078 53.747078)
  1 by 1 by 1 MPI processor grid
create_atoms    1 box
Created 131072 atoms
  using lattice units in orthogonal box = (0 0 0) to (53.747078 53.747078 53.747078)
  create_atoms CPU = 0.003 seconds
mass            1 1.0

velocity        all create 3.0 87287 loop geom

pair_style      lj/cut 2.5
pair_coeff      1 1 1.0 1.0 2.5

neighbor        0.5 bin
neigh_modify    every 20 delay 0 check no

fix             1 all nve

thermo          100
run             1200
Generated 0 of 0 mixed pair_coeff terms from geometric mixing rule
Neighbor list info ...
  update: every = 20 steps, delay = 0 steps, check = no
  max neighbors/atom: 2000, page size: 100000
  master list distance cutoff = 3
  ghost atom cutoff = 3
  binsize = 1.5, bins = 36 36 36
  1 neighbor lists, perpetual/occasional/extra = 1 0 0
  (1) pair lj/cut/opt, perpetual
      attributes: half, newton on
      pair build: half/bin/atomonly/newton
      stencil: half/bin/3d
      bin: standard
Per MPI rank memory allocation (min/avg/max) = 47.49 | 47.49 | 47.49 Mbytes
   Step          Temp          E_pair         E_mol          TotEng         Press     
         0   3             -6.7733681      0             -2.2734024     -3.7027366    
       100   1.6522603     -4.7580629      0             -2.2796914      5.8020292    
       200   1.6452164     -4.7466438      0             -2.2788381      5.8625432    
       300   1.649556      -4.753166       0             -2.2788509      5.8469298    
       400   1.644526      -4.7455296      0             -2.2787594      5.8775406    
       500   1.6417119     -4.7412524      0             -2.2787034      5.8979956    
       600   1.6434303     -4.7438262      0             -2.2786996      5.8944983    
       700   1.6420252     -4.7417854      0             -2.2787665      5.886127     
       800   1.6443757     -4.7452563      0             -2.2787115      5.8797634    
       900   1.641191      -4.7405196      0             -2.2787519      5.8901453    
      1000   1.6421209     -4.7418672      0             -2.2787047      5.8950569    
      1100   1.6479198     -4.7507068      0             -2.2788459      5.8492024    
      1200   1.6452685     -4.746731       0             -2.278847       5.8706622    
Loop time of 56.4394 on 1 procs for 1200 steps with 131072 atoms

Performance: 9185.067 tau/day, 21.262 timesteps/s, 2.787 Matom-step/s
99.7% CPU use with 1 MPI tasks x 1 OpenMP threads

MPI task timing breakdown:
Section |  min time  |  avg time  |  max time  |%varavg| %total
---------------------------------------------------------------
Pair    | 48.045     | 48.045     | 48.045     |   0.0 | 85.13
Neigh   | 7.4342     | 7.4342     | 7.4342     |   0.0 | 13.17
Comm    | 0.2595     | 0.2595     | 0.2595     |   0.0 |  0.46
Output  | 0.0018214  | 0.0018214  | 0.0018214  |   0.0 |  0.00
Modify  | 0.65527    | 0.65527    | 0.65527    |   0.0 |  1.16
Other   |            | 0.04389    |            |       |  0.08

Nlocal:         131072 ave      131072 max      131072 min
Histogram: 1 0 0 0 0 0 0 0 0 0
Nghost:          48996 ave       48996 max       48996 min
Histogram: 1 0 0 0 0 0 0 0 0 0
Neighs:    6.19298e+06 ave 6.19298e+06 max 6.19298e+06 min
Histogram: 1 0 0 0 0 0 0 0 0 0

Total # of neighbors = 6192982
Ave neighs/atom = 47.248703
Neighbor list builds = 60
Dangerous builds not checked
Total wall time: 0:00:56
