LAMMPS (10 Dec 2025 - Development - patch_10Dec2025-121-gd51f1eef21-modified)
  using 1 OpenMP thread(s) per MPI task
# 3d Lennard-Jones melt (xxlarge system)

units           lj
atom_style      atomic

lattice         fcc 0.8442
Lattice spacing in x,y,z = 1.6795962 1.6795962 1.6795962
region          box block 0 32 0 32 0 32
create_box      1 box
Created orthogonal box = (0 0 0) to (53.747078 53.747078 53.747078)
  1 by 1 by 1 MPI processor grid
create_atoms    1 box
Created 131072 atoms
  using lattice units in orthogonal box = (0 0 0) to (53.747078 53.747078 53.747078)
  create_atoms CPU = 0.004 seconds
mass            1 1.0

velocity        all create 3.0 87287 loop geom

pair_style      lj/cut 2.5
pair_coeff      1 1 1.0 1.0 2.5

neighbor        0.4 bin
neigh_modify    every 20 delay 0 check no

fix             1 all nve

thermo          100
run             1200
Generated 0 of 0 mixed pair_coeff terms from geometric mixing rule
Neighbor list info ...
  update: every = 20 steps, delay = 0 steps, check = no
  max neighbors/atom: 2000, page size: 100000
  master list distance cutoff = 2.9
  ghost atom cutoff = 2.9
  binsize = 1.45, bins = 38 38 38
  1 neighbor lists, perpetual/occasional/extra = 1 0 0
  (1) pair lj/cut/opt, perpetual
      attributes: half, newton on
      pair build: half/bin/atomonly/newton
      stencil: half/bin/3d
      bin: standard
Per MPI rank memory allocation (min/avg/max) = 45.62 | 45.62 | 45.62 Mbytes
   Step          Temp          E_pair         E_mol          TotEng         Press     
         0   3             -6.7733681      0             -2.2734024     -3.7027366    
       100   1.6521896     -4.7581253      0             -2.2798598      5.8016834    
       200   1.6450979     -4.7467135      0             -2.2790856      5.8622       
       300   1.6500384     -4.7541953      0             -2.2791566      5.8427131    
       400   1.6471833     -4.7499762      0             -2.2792202      5.8595765    
       500   1.6468264     -4.7494176      0             -2.2791969      5.8598194    
       600   1.6429833     -4.7437         0             -2.2792438      5.8887106    
       700   1.6444214     -4.7459684      0             -2.2793551      5.8670434    
       800   1.6437561     -4.7449764      0             -2.2793612      5.8738733    
       900   1.6450819     -4.7472481      0             -2.2796441      5.8651514    
      1000   1.6393864     -4.7388532      0             -2.2797924      5.9072605    
      1100   1.6400313     -4.7397612      0             -2.2797331      5.9029396    
      1200   1.6412517     -4.7416746      0             -2.2798158      5.8890484    
Loop time of 49.3899 on 1 procs for 1200 steps with 131072 atoms

Performance: 10496.083 tau/day, 24.296 timesteps/s, 3.185 Matom-step/s
99.5% CPU use with 1 MPI tasks x 1 OpenMP threads

MPI task timing breakdown:
Section |  min time  |  avg time  |  max time  |%varavg| %total
---------------------------------------------------------------
Pair    | 41.425     | 41.425     | 41.425     |   0.0 | 83.87
Neigh   | 6.9455     | 6.9455     | 6.9455     |   0.0 | 14.06
Comm    | 0.2985     | 0.2985     | 0.2985     |   0.0 |  0.60
Output  | 0.0018237  | 0.0018237  | 0.0018237  |   0.0 |  0.00
Modify  | 0.67372    | 0.67372    | 0.67372    |   0.0 |  1.36
Other   |            | 0.04541    |            |       |  0.09

Nlocal:         131072 ave      131072 max      131072 min
Histogram: 1 0 0 0 0 0 0 0 0 0
Nghost:          47323 ave       47323 max       47323 min
Histogram: 1 0 0 0 0 0 0 0 0 0
Neighs:    5.55423e+06 ave 5.55423e+06 max 5.55423e+06 min
Histogram: 1 0 0 0 0 0 0 0 0 0

Total # of neighbors = 5554232
Ave neighs/atom = 42.375427
Neighbor list builds = 60
Dangerous builds not checked
Total wall time: 0:00:49
