LAMMPS (10 Dec 2025 - Development - patch_10Dec2025-121-gd51f1eef21-modified)
  using 1 OpenMP thread(s) per MPI task
# 3d Lennard-Jones melt (xxlarge system)

units           lj
atom_style      atomic

lattice         fcc 0.8442
Lattice spacing in x,y,z = 1.6795962 1.6795962 1.6795962
region          box block 0 32 0 32 0 32
create_box      1 box
Created orthogonal box = (0 0 0) to (53.747078 53.747078 53.747078)
  1 by 1 by 1 MPI processor grid
create_atoms    1 box
Created 131072 atoms
  using lattice units in orthogonal box = (0 0 0) to (53.747078 53.747078 53.747078)
  create_atoms CPU = 0.003 seconds
mass            1 1.0

velocity        all create 3.0 87287 loop geom

pair_style      lj/cut 2.5
pair_coeff      1 1 1.0 1.0 2.5

neighbor        0.4 bin
neigh_modify    every 40 delay 0 check no

fix             1 all nve

thermo          100
run             1200
Generated 0 of 0 mixed pair_coeff terms from geometric mixing rule
Neighbor list info ...
  update: every = 40 steps, delay = 0 steps, check = no
  max neighbors/atom: 2000, page size: 100000
  master list distance cutoff = 2.9
  ghost atom cutoff = 2.9
  binsize = 1.45, bins = 38 38 38
  1 neighbor lists, perpetual/occasional/extra = 1 0 0
  (1) pair lj/cut/opt, perpetual
      attributes: half, newton on
      pair build: half/bin/atomonly/newton
      stencil: half/bin/3d
      bin: standard
Per MPI rank memory allocation (min/avg/max) = 45.62 | 45.62 | 45.62 Mbytes
   Step          Temp          E_pair         E_mol          TotEng         Press     
         0   3             -6.7733681      0             -2.2734024     -3.7027366    
       100   1.6513695     -4.7587907      0             -2.2817554      5.7972615    
       200   1.6425432     -4.7480771      0             -2.2842811      5.853434     
       300   1.6454675     -4.7544899      0             -2.2863074      5.8385474    
       400   1.6421287     -4.752892       0             -2.2897177      5.8381329    
       500   1.638497      -4.7494107      0             -2.2916839      5.8565008    
       600   1.6353744     -4.7482287      0             -2.2951859      5.8540845    
       700   1.6337092     -4.7476267      0             -2.2970816      5.8554746    
       800   1.6317549     -4.7480663      0             -2.3004527      5.8536721    
       900   1.6294666     -4.7466683      0             -2.3024871      5.8584762    
      1000   1.6319769     -4.7538414      0             -2.3058947      5.82391      
      1100   1.6325486     -4.7567228      0             -2.3079187      5.8128998    
      1200   1.6294232     -4.7554323      0             -2.3113162      5.8147969    
Loop time of 44.8726 on 1 procs for 1200 steps with 131072 atoms

Performance: 11552.708 tau/day, 26.742 timesteps/s, 3.505 Matom-step/s
99.6% CPU use with 1 MPI tasks x 1 OpenMP threads

MPI task timing breakdown:
Section |  min time  |  avg time  |  max time  |%varavg| %total
---------------------------------------------------------------
Pair    | 40.536     | 40.536     | 40.536     |   0.0 | 90.34
Neigh   | 3.401      | 3.401      | 3.401      |   0.0 |  7.58
Comm    | 0.24443    | 0.24443    | 0.24443    |   0.0 |  0.54
Output  | 0.0018133  | 0.0018133  | 0.0018133  |   0.0 |  0.00
Modify  | 0.65536    | 0.65536    | 0.65536    |   0.0 |  1.46
Other   |            | 0.03389    |            |       |  0.08

Nlocal:         131072 ave      131072 max      131072 min
Histogram: 1 0 0 0 0 0 0 0 0 0
Nghost:          47164 ave       47164 max       47164 min
Histogram: 1 0 0 0 0 0 0 0 0 0
Neighs:    5.55248e+06 ave 5.55248e+06 max 5.55248e+06 min
Histogram: 1 0 0 0 0 0 0 0 0 0

Total # of neighbors = 5552484
Ave neighs/atom = 42.362091
Neighbor list builds = 30
Dangerous builds not checked
Total wall time: 0:00:44
