LAMMPS (10 Dec 2025 - Development - patch_10Dec2025-121-gd51f1eef21-modified)
  using 1 OpenMP thread(s) per MPI task
# 3d Lennard-Jones melt (xxlarge system)

units           lj
atom_style      atomic

lattice         fcc 0.8442
Lattice spacing in x,y,z = 1.6795962 1.6795962 1.6795962
region          box block 0 32 0 32 0 32
create_box      1 box
Created orthogonal box = (0 0 0) to (53.747078 53.747078 53.747078)
  1 by 1 by 1 MPI processor grid
create_atoms    1 box
Created 131072 atoms
  using lattice units in orthogonal box = (0 0 0) to (53.747078 53.747078 53.747078)
  create_atoms CPU = 0.012 seconds
mass            1 1.0

velocity        all create 3.0 87287 loop geom

pair_style      lj/cut 2.5
pair_coeff      1 1 1.0 1.0 2.5

neighbor        0.3 bin
neigh_modify    every 20 delay 0 check no

fix             1 all nve

thermo          100
run             1200
Generated 0 of 0 mixed pair_coeff terms from geometric mixing rule
Neighbor list info ...
  update: every = 20 steps, delay = 0 steps, check = no
  max neighbors/atom: 2000, page size: 100000
  master list distance cutoff = 2.8
  ghost atom cutoff = 2.8
  binsize = 1.4, bins = 39 39 39
  1 neighbor lists, perpetual/occasional/extra = 1 0 0
  (1) pair lj/cut/opt, perpetual
      attributes: half, newton on
      pair build: half/bin/atomonly/newton
      stencil: half/bin/3d
      bin: standard
Per MPI rank memory allocation (min/avg/max) = 45.65 | 45.65 | 45.65 Mbytes
   Step          Temp          E_pair         E_mol          TotEng         Press     
         0   3             -6.7733681      0             -2.2734024     -3.7027366    
       100   1.6519952     -4.7582688      0             -2.2802949      5.8008747    
       200   1.6446467     -4.7470177      0             -2.2800664      5.860365     
       300   1.6499046     -4.7555657      0             -2.2807276      5.8360899    
       400   1.6409164     -4.7426568      0             -2.2813009      5.8807556    
       500   1.6462003     -4.7512312      0             -2.2819496      5.8470268    
       600   1.6424481     -4.7461545      0             -2.2825011      5.878847     
       700   1.6437057     -4.7486021      0             -2.2830623      5.8610739    
       800   1.6419063     -4.7466509      0             -2.2838103      5.8650737    
       900   1.6437379     -4.7501824      0             -2.2845944      5.863812     
      1000   1.6397624     -4.7448082      0             -2.2851834      5.8766477    
      1100   1.6431107     -4.7504622      0             -2.285815       5.8544959    
      1200   1.6373511     -4.7424638      0             -2.2864559      5.8805592    
Loop time of 38.777 on 1 procs for 1200 steps with 131072 atoms

Performance: 13368.741 tau/day, 30.946 timesteps/s, 4.056 Matom-step/s
99.6% CPU use with 1 MPI tasks x 1 OpenMP threads

MPI task timing breakdown:
Section |  min time  |  avg time  |  max time  |%varavg| %total
---------------------------------------------------------------
Pair    | 31.395     | 31.395     | 31.395     |   0.0 | 80.96
Neigh   | 6.4094     | 6.4094     | 6.4094     |   0.0 | 16.53
Comm    | 0.26512    | 0.26512    | 0.26512    |   0.0 |  0.68
Output  | 0.0018457  | 0.0018457  | 0.0018457  |   0.0 |  0.00
Modify  | 0.66218    | 0.66218    | 0.66218    |   0.0 |  1.71
Other   |            | 0.04391    |            |       |  0.11

Nlocal:         131072 ave      131072 max      131072 min
Histogram: 1 0 0 0 0 0 0 0 0 0
Nghost:          45366 ave       45366 max       45366 min
Histogram: 1 0 0 0 0 0 0 0 0 0
Neighs:    4.96712e+06 ave 4.96712e+06 max 4.96712e+06 min
Histogram: 1 0 0 0 0 0 0 0 0 0

Total # of neighbors = 4967122
Ave neighs/atom = 37.896133
Neighbor list builds = 60
Dangerous builds not checked
Total wall time: 0:00:38
