LAMMPS (10 Dec 2025 - Development - patch_10Dec2025-121-gd51f1eef21-modified)
  using 1 OpenMP thread(s) per MPI task
# 3d Lennard-Jones melt (xxlarge system)

units           lj
atom_style      atomic

lattice         fcc 0.8442
Lattice spacing in x,y,z = 1.6795962 1.6795962 1.6795962
region          box block 0 32 0 32 0 32
create_box      1 box
Created orthogonal box = (0 0 0) to (53.747078 53.747078 53.747078)
  1 by 1 by 1 MPI processor grid
create_atoms    1 box
Created 131072 atoms
  using lattice units in orthogonal box = (0 0 0) to (53.747078 53.747078 53.747078)
  create_atoms CPU = 0.004 seconds
mass            1 1.0

velocity        all create 3.0 87287 loop geom

pair_style      lj/cut 2.5
pair_coeff      1 1 1.0 1.0 2.5

neighbor        0.3 bin
neigh_modify    every 20 delay 0 check no

fix             1 all nve

thermo          100
run             1200
Generated 0 of 0 mixed pair_coeff terms from geometric mixing rule
Neighbor list info ...
  update: every = 20 steps, delay = 0 steps, check = no
  max neighbors/atom: 2000, page size: 100000
  master list distance cutoff = 2.8
  ghost atom cutoff = 2.8
  binsize = 1.4, bins = 39 39 39
  1 neighbor lists, perpetual/occasional/extra = 1 0 0
  (1) pair lj/cut, perpetual
      attributes: half, newton on
      pair build: half/bin/atomonly/newton
      stencil: half/bin/3d
      bin: standard
Per MPI rank memory allocation (min/avg/max) = 45.65 | 45.65 | 45.65 Mbytes
   Step          Temp          E_pair         E_mol          TotEng         Press     
         0   3             -6.7733681      0             -2.2734024     -3.7027366    
       100   1.6519952     -4.7582688      0             -2.2802949      5.8008747    
       200   1.6446467     -4.7470177      0             -2.2800664      5.860365     
       300   1.6499046     -4.7555657      0             -2.2807276      5.8360899    
       400   1.6409164     -4.7426568      0             -2.2813009      5.8807556    
       500   1.6462003     -4.7512312      0             -2.2819496      5.8470268    
       600   1.6424481     -4.7461545      0             -2.2825011      5.878847     
       700   1.6437057     -4.7486021      0             -2.2830623      5.861074     
       800   1.6419063     -4.7466513      0             -2.2838107      5.8650735    
       900   1.6437365     -4.750176       0             -2.28459        5.8638258    
      1000   1.6398056     -4.7448616      0             -2.2851719      5.8762175    
      1100   1.6434688     -4.7509808      0             -2.2857964      5.8520459    
      1200   1.6413754     -4.7484748      0             -2.2864305      5.8563674    
Loop time of 44.606 on 1 procs for 1200 steps with 131072 atoms

Performance: 11621.748 tau/day, 26.902 timesteps/s, 3.526 Matom-step/s
99.6% CPU use with 1 MPI tasks x 1 OpenMP threads

MPI task timing breakdown:
Section |  min time  |  avg time  |  max time  |%varavg| %total
---------------------------------------------------------------
Pair    | 37.228     | 37.228     | 37.228     |   0.0 | 83.46
Neigh   | 6.424      | 6.424      | 6.424      |   0.0 | 14.40
Comm    | 0.24716    | 0.24716    | 0.24716    |   0.0 |  0.55
Output  | 0.0018115  | 0.0018115  | 0.0018115  |   0.0 |  0.00
Modify  | 0.66168    | 0.66168    | 0.66168    |   0.0 |  1.48
Other   |            | 0.04303    |            |       |  0.10

Nlocal:         131072 ave      131072 max      131072 min
Histogram: 1 0 0 0 0 0 0 0 0 0
Nghost:          45366 ave       45366 max       45366 min
Histogram: 1 0 0 0 0 0 0 0 0 0
Neighs:    4.96701e+06 ave 4.96701e+06 max 4.96701e+06 min
Histogram: 1 0 0 0 0 0 0 0 0 0

Total # of neighbors = 4967013
Ave neighs/atom = 37.895302
Neighbor list builds = 60
Dangerous builds not checked
Total wall time: 0:00:44
